          77
 Energy =    -2320.81148391 a.u.  Frame:     1 Step:     1 Geom:     1
C          -4.71819000      2.22494300     -1.17390700
C          -4.44293600      0.80585000     -1.67483800
C          -5.49459000     -0.23784800     -1.25413300
C          -5.22244900     -1.58143300     -1.95769000
C          -6.21244200     -2.69910800     -1.61964000
C          -5.63321200     -0.40049900      0.26310800
O          -4.55831600     -1.21462300      0.80212600
C          -3.49882100     -0.60926300      1.34113100
O          -3.38383600      0.58852000      1.52355400
C          -2.44079500     -1.63344700      1.75909900
C          -2.56468800     -1.91478900      3.25914800
N          -1.09948000     -1.14667600      1.45711500
P          -0.57293700     -1.11806700     -0.12031900
O          -1.62016800     -1.31330600     -1.15223600
O           0.61513600     -2.20592700     -0.12214100
C           1.29500200     -2.55546400     -1.34546600
C           2.75039200     -2.11999000     -1.32118600
C           3.49781500     -2.47564200     -0.02367000
C           4.59404200     -1.39330100      0.04626000
C           3.95343200     -0.17066400     -0.71195900
O           2.82635600     -0.69555700     -1.44198600
C           4.93990100      0.35224200     -1.68594000
N           5.72717400      0.76436600     -2.43196800
C           3.47070100      0.99663200      0.10751200
C           3.42786800      2.34992300     -0.24520900
C           2.58179600      3.02547500      0.64844500
C           2.09725600      2.07381200      1.54482400
N           2.68717400      0.85090600      1.21507600
N           2.49407200     -0.30297100      1.90570200
C           1.58845900     -0.20807000      2.84327300
N           0.80418900      0.85605400      3.15847900
C           1.06071800      1.99251400      2.51647300
N           0.29984400      3.08526100      2.79528000
O           5.69449500     -1.94147500     -0.66460300
O           3.99798000     -3.78937000     -0.00516400
O           0.29012600      0.25137800     -0.21156500
C          -0.14834100      1.45008500     -0.76616700
C          -1.13360000      2.20475200     -0.13589600
C          -1.43700100      3.46790200     -0.64942500
C          -0.77022000      3.95479900     -1.77592800
C           0.19857000      3.16792100     -2.40364600
C           0.51577200      1.90732100     -1.89986800
H          -4.58230300      2.29964900     -0.09031800
H          -4.02706400      2.93472300     -1.63905800
H          -5.74034500      2.54421100     -1.41712400
H          -4.41589200      0.81285500     -2.77261600
H          -3.44719700      0.47676100     -1.35815900
H          -6.48099600      0.13010900     -1.58306800
H          -5.23966600     -1.39699200     -3.03957500
H          -4.20181800     -1.89952700     -1.71773100
H          -5.64467800      0.55810000      0.78334000
H          -6.53870700     -0.95661800      0.51237000
H          -6.02851300     -3.58179900     -2.24198700
H          -6.12329600     -3.01367200     -0.57415300
H          -7.25020900     -2.38411700     -1.79062900
H          -2.61656300     -2.54877800      1.19146100
H          -2.39317300     -0.99598900      3.83075300
H          -3.56443500     -2.28981800      3.49927000
H          -1.82222700     -2.65958600      3.55829900
H          -0.78803300     -0.37660100      2.04423900
H           1.26354700     -3.64630800     -1.41475600
H           0.77481300     -2.13263400     -2.20977900
H           3.25856700     -2.59471400     -2.17449000
H           2.82470200     -2.35924500      0.82151500
H           4.86610100     -1.12377000      1.06999900
H           4.83864200     -3.76518900     -0.49571900
H           6.42242800     -1.30179800     -0.69968600
H           3.94244800      2.77696400     -1.09404700
H           2.31882200      4.07306900      0.62318100
H           1.41723600     -1.11939300      3.40670800
H          -0.53139600      2.89013600      3.33994500
H           0.17943200      3.76333300      2.05420200
H          -1.66352300      1.80306600      0.72036800
H           1.28348700      1.28225900     -2.34109200
H          -2.21010100      4.06337000     -0.17247500
H          -1.01251400      4.93762000     -2.16951000
H           0.71485400      3.53771600     -3.28479100
          77
 Energy =    -2320.81902300 a.u.  Frame:     2 Step:     2 Geom:     2
C           3.57670000     -1.13952800      2.83467500
C           4.39317900      0.12097900      2.53183400
C           4.61854100      0.43910600      1.04341900
C           5.38493400      1.76840700      0.89654100
C           5.55597100      2.26140900     -0.54540000
C           5.34040800     -0.68238800      0.29046900
O           4.47349200     -1.82373700      0.05573200
C           3.56723000     -1.68846900     -0.91904300
O           3.48228400     -0.73485700     -1.66953900
C           2.64433800     -2.90224000     -1.00307500
C           3.21627200     -3.92184100     -1.99404600
N           1.30694000     -2.47212400     -1.41709500
P           0.21986200     -1.98516100     -0.24469600
O           0.66160100     -2.26115200      1.14329500
O          -1.16047500     -2.67427200     -0.69296200
C          -2.06744300     -3.16663700      0.31436700
C          -3.17904900     -2.18767400      0.61231200
C          -3.99204500     -1.72085300     -0.60150900
C          -4.66701300     -0.45310200     -0.04841300
C          -3.60411100      0.07599100      0.99655200
O          -2.63360600     -0.97876500      1.15057400
C          -4.28250400      0.27927100      2.29967000
N          -4.82399400      0.44361700      3.31260400
C          -2.91306800      1.36006600      0.64389900
C          -2.54206100      2.41643900      1.48000700
C          -1.84825600      3.37304600      0.72258500
C          -1.79281900      2.89230800     -0.58361700
N          -2.45757100      1.66310700     -0.61016600
N          -2.63388200      0.91162300     -1.73192800
C          -2.08246700      1.42931700     -2.80045500
N          -1.36394200      2.57393900     -2.92110000
C          -1.21845400      3.29848100     -1.82042700
N          -0.52075200      4.46563700     -1.89539000
O          -5.85950700     -0.91251300      0.57148300
O          -4.89484200     -2.68036700     -1.09070800
O          -0.11233300     -0.42985700     -0.61967500
C           0.59318700      0.62888300     -0.05429800
C           1.27679900      1.48875800     -0.91001700
C           1.90715700      2.61408400     -0.37798800
C           1.86655600      2.86252600      0.99611400
C           1.19147000      1.97758200      1.83973000
C           0.54306300      0.85748600      1.32024500
H           3.38265200     -1.21450800      3.91107100
H           2.61160100     -1.13527300      2.31893700
H           4.10257600     -2.04836300      2.52810700
H           3.88481000      0.98737500      2.97539600
H           5.37248400      0.05599000      3.03048200
H           3.64223000      0.57386700      0.56549000
H           4.83113300      2.52275900      1.46861900
H           6.36878400      1.68479000      1.38149400
H           5.70927200     -0.34241800     -0.67802800
H           6.17083600     -1.08875900      0.87380200
H           6.30390500      1.68224800     -1.09715700
H           4.61318000      2.18374400     -1.09579000
H           5.88212300      3.30753100     -0.56278000
H           2.56389600     -3.34547500     -0.01022300
H           2.55230900     -4.78812300     -2.05451100
H           3.30496400     -3.47843100     -2.99198700
H           4.20975900     -4.25180200     -1.67341800
H           1.33751900     -1.87300400     -2.23774800
H          -2.51358000     -4.07449000     -0.09935300
H          -1.50870300     -3.40804200      1.22180500
H          -3.85474300     -2.66285800      1.34184200
H          -3.30772800     -1.44509400     -1.40276000
H          -4.87542800      0.29695400     -0.81393600
H          -5.67930200     -2.62755400     -0.51641600
H          -6.32276300     -0.17294100      0.99380000
H          -2.76333200      2.46375700      2.53662500
H          -1.42763600      4.30126900      1.08072000
H          -2.21545300      0.84548500     -3.70623500
H           0.00500100      4.58734900     -2.75156800
H          -0.06818500      4.79229600     -1.05301900
H           1.30298900      1.27291500     -1.97119200
H          -0.00288200      0.16858700      1.95190400
H           2.44487200      3.28659600     -1.03970000
H           2.36846200      3.73328900      1.40817500
H           1.15685000      2.16287000      2.90913000
          77
 Energy =    -2320.82081381 a.u.  Frame:     3 Step:     3 Geom:     3
C          -3.50493300     -0.98573200     -2.86898000
C          -4.30504200      0.27632100     -2.53116900
C          -4.55864700      0.53830500     -1.03625400
C          -5.29943100      1.87809700     -0.85485800
C          -5.50378900      2.31555500      0.60048900
C          -5.32346300     -0.59410500     -0.34507700
O          -4.49504000     -1.77149800     -0.15150800
C          -3.60430700     -1.71346800      0.84437400
O          -3.50254500     -0.80106500      1.64259400
C          -2.72309600     -2.96027900      0.88562900
C          -3.36050300     -4.01711200      1.79402700
N          -1.38669800     -2.60103700      1.36960500
P          -0.26816300     -2.04229100      0.25741700
O          -0.66831300     -2.24543200     -1.15500900
O           1.10326100     -2.75792600      0.70630400
C           2.02293800     -3.20128100     -0.31078100
C           3.12724300     -2.20195700     -0.56919400
C           3.93055800     -1.75045300      0.64476300
C           4.63003200     -0.47629700      0.11502200
C           3.60967700      0.03783800     -0.97330200
O           2.58640900     -0.98493700     -1.07443300
C           4.27188600      0.13202700     -2.29482800
N           4.70509700      0.20889500     -3.36759500
C           2.95725300      1.35418300     -0.67901500
C           2.68688200      2.42403400     -1.53493200
C           2.00974800      3.42066000     -0.81434300
C           1.86391300      2.95144000      0.48933000
N           2.45831200      1.68700800      0.55056600
N           2.53752700      0.93233500      1.68249500
C           1.97563600      1.49329700      2.72390700
N           1.32608300      2.68029200      2.81024900
C           1.26405000      3.40028500      1.69787800
N           0.63300900      4.60682800      1.73851600
O           5.86326700     -0.80975900     -0.47704800
O           4.86924100     -2.76423500      0.99697800
O           0.05561300     -0.51561700      0.72936200
C          -0.58396800      0.58962100      0.17265600
C          -1.27095600      1.44274000      1.03232600
C          -1.84591600      2.60451000      0.51673800
C          -1.74588300      2.89681600     -0.84550500
C          -1.06198000      2.02203900     -1.69265800
C          -0.46927000      0.86411600     -1.18953400
H          -4.05413300     -1.89651800     -2.61355700
H          -3.28701400     -1.01845900     -3.94288200
H          -2.55206800     -1.02095600     -2.33229200
H          -3.77033200      1.15015800     -2.92649400
H          -5.27358100      0.25131600     -3.05382300
H          -3.59123300      0.63158800     -0.53117400
H          -4.71152400      2.64223600     -1.37777600
H          -6.26956800      1.83754500     -1.37176900
H          -5.69505300     -0.28730000      0.63334300
H          -6.15760800     -0.94846100     -0.95650200
H          -4.57909300      2.19823300      1.17415800
H          -5.81094800      3.36632400      0.65125900
H          -6.27839200      1.72952900      1.10636500
H          -2.62269100     -3.34670500     -0.12888100
H          -2.72722300     -4.90768300      1.82304200
H          -3.46959500     -3.63152500      2.81378600
H          -4.35225900     -4.29311600      1.42157700
H          -1.43585200     -2.04560400      2.22019900
H           2.47145600     -4.12322500      0.06768700
H           1.47673600     -3.40962700     -1.23382700
H           3.81683100     -2.65575400     -1.30033800
H           3.25424100     -1.50265200      1.46397500
H           4.76651500      0.28183200      0.89035400
H           5.09613200     -2.65578400      1.93299100
H           6.08538100     -1.69633600     -0.13180800
H           2.96798600      2.45276500     -2.57775700
H           1.66432900      4.37164100     -1.19327600
H           2.03216800      0.90917000      3.63776300
H           0.07871800      4.76404000      2.57040800
H           0.23764300      4.95501400      0.87644600
H          -1.34592400      1.19194200      2.08312300
H           0.08256400      0.18354000     -1.82479800
H          -2.38363000      3.27319700      1.18210700
H          -2.20515700      3.79623100     -1.24595400
H          -0.97563600      2.24406500     -2.75195600
          77
 Energy =    -2320.81453172 a.u.  Frame:     4 Step:     4 Geom:     4
C           3.48943700      2.21173200     -2.86059500
C           3.71565300      2.62354900     -1.40386600
C           4.37446800      1.51930900     -0.55695000
C           5.89133500      1.41726500     -0.79874200
C           6.51759300      0.10804100     -0.30759000
C           4.08702800      1.73876700      0.92927100
O           2.66968600      1.56979400      1.19356500
C           2.24954400      0.29845500      1.30763300
O           2.98391600     -0.66339600      1.38571900
C           0.72767500      0.25169300      1.36267500
C           0.26306000      0.25270300      2.82260900
N           0.22374500     -0.94665400      0.69298900
P           0.70460200     -1.30345100     -0.86657100
O           1.30128700     -0.18250500     -1.63184900
O          -0.60286200     -2.03315400     -1.49598300
C          -1.67837600     -1.28330400     -2.07486700
C          -2.91542200     -1.40037900     -1.19474200
C          -4.16170000     -0.74774500     -1.80343400
C          -4.19224200      0.64642900     -1.15851400
C          -3.57220100      0.36848900      0.26251600
O          -2.67568400     -0.73859800      0.06850700
C          -4.64153200     -0.04118600      1.20306700
N          -5.46538500     -0.36722000      1.95095100
C          -2.84059100      1.53216200      0.85659100
C          -2.99578600      2.16625100      2.09146100
C          -2.04272700      3.19397100      2.19389400
C          -1.29959900      3.18077600      1.01317900
N          -1.81421200      2.16267400      0.20565400
N          -1.32005400      1.82467400     -1.02109400
C          -0.28534200      2.54450700     -1.38609000
N           0.32223500      3.54988000     -0.71480900
C          -0.16933600      3.86425900      0.47662300
N           0.41730900      4.87378400      1.16738700
O          -5.45082600      1.24413500     -1.12913300
O          -5.36881900     -1.37587200     -1.39061500
O           1.70328100     -2.56794700     -0.81295700
C           1.44172600     -3.70100700     -0.03635800
C           1.85912600     -3.73003500      1.29151000
C           1.63735600     -4.88909700      2.03570800
C           1.00983800     -5.99525800      1.45817300
C           0.60041000     -5.94422200      0.12443000
C           0.81409900     -4.79138000     -0.63228000
H           3.03321600      3.02959200     -3.43094100
H           4.42595400      1.94307700     -3.36435800
H           2.82065500      1.34582200     -2.90082400
H           4.33773200      3.53107100     -1.35458200
H           2.74582800      2.88330000     -0.96778200
H           3.91788700      0.56064600     -0.83309200
H           6.07846300      1.51667400     -1.87467900
H           6.39305500      2.27650300     -0.32768400
H           4.64265300      1.04899100      1.56595800
H           4.30179900      2.76851700      1.22952900
H           7.59000700      0.07636000     -0.53093200
H           6.40166300     -0.02686300      0.77334400
H           6.04441400     -0.75237000     -0.79388800
H           0.37660000      1.15916900      0.87131300
H           0.65035100     -0.62904600      3.34094400
H           0.61329100      1.15615500      3.33075400
H          -0.83044900      0.24293400      2.86686000
H          -0.77447600     -1.07955000      0.83668000
H          -1.39704300     -0.23675400     -2.20518800
H          -1.88056100     -1.73240800     -3.05316000
H          -3.09758400     -2.45903500     -0.97585600
H          -4.10589800     -0.68392800     -2.89801700
H          -3.51229100      1.31431100     -1.68669100
H          -5.40965600     -2.27262700     -1.75400800
H          -6.09108400      0.53524900     -0.93607700
H          -3.74000300      1.89541900      2.82662900
H          -1.91425300      3.87282100      3.02512400
H           0.14804300      2.26665100     -2.33956900
H           1.31546900      5.17977500      0.81735300
H           0.26081200      4.95237100      2.16095200
H           2.33976200     -2.85228000      1.70592900
H           0.50437900     -4.72316500     -1.66920400
H           1.95885400     -4.92670500      3.07288200
H           0.84260700     -6.89435200      2.04435800
H           0.11452800     -6.80266600     -0.33095600
          77
 Energy =    -2320.80991428 a.u.  Frame:     5 Step:     5 Geom:     5
C          -4.63303400     -2.50033300     -2.14381600
C          -5.65753000     -1.48938600     -1.61703700
C          -5.26471200     -0.76235200     -0.31893700
C          -6.32682500      0.28676000      0.07177700
C          -5.79908200      1.38384200      1.00134500
C          -5.06234500     -1.72242300      0.85969400
O          -3.82174700     -2.46442900      0.75202900
C          -2.70644100     -1.80269100      1.08642600
O          -2.67652100     -0.70478000      1.60552300
C          -1.46211400     -2.61883900      0.72953900
C          -1.11103100     -3.60165400      1.84980300
N          -0.31399400     -1.75155400      0.47024700
P          -0.40306800     -0.65355200     -0.78493400
O          -1.48010200     -0.95315600     -1.75578000
O           1.09954100     -0.56475400     -1.37086100
C           1.67967900     -1.73535900     -1.98116200
C           3.01928200     -2.04642700     -1.33681700
C           2.96118800     -2.22547100      0.19827700
C           4.22872700     -1.50268000      0.67825500
C           4.35691700     -0.35647500     -0.35528600
O           3.96777100     -0.99349900     -1.60140200
C           5.77262000      0.02935400     -0.53531200
N           6.88334400      0.32643600     -0.68842500
C           3.56316800      0.90867600     -0.13235700
C           3.62632600      2.03722600     -0.95566100
C           2.73197700      3.00263300     -0.47591700
C           2.11750600      2.45937900      0.65070000
N           2.64065300      1.17506500      0.84376100
N           2.25267700      0.34811200      1.85877800
C           1.36540800      0.88751800      2.66532300
N           0.77375500      2.09906600      2.60216200
C           1.12591100      2.87265000      1.58125000
N           0.53129500      4.09036700      1.45330300
O           5.33770900     -2.39573600      0.60993800
O           2.90450300     -3.56862300      0.61595100
O          -0.43721900      0.77344000     -0.02741700
C          -1.05938900      1.92201600     -0.49507300
C          -2.15366900      2.39502900      0.22319900
C          -2.70994500      3.62332600     -0.13625100
C          -2.17792100      4.35548700     -1.20173000
C          -1.09073800      3.85049900     -1.92062600
C          -0.52072500      2.62486700     -1.56911900
H          -4.94462300     -2.88106400     -3.12344100
H          -3.64643800     -2.03768100     -2.25172000
H          -4.52604300     -3.35642700     -1.47104700
H          -5.82481000     -0.72283000     -2.38531300
H          -6.62977600     -1.98333000     -1.46588800
H          -4.31386000     -0.24134500     -0.49094600
H          -6.71378400      0.75212000     -0.84329500
H          -7.18638500     -0.22046200      0.53513800
H          -5.05910200     -1.19134700      1.81329900
H          -5.83917200     -2.49136400      0.87689800
H          -5.34343700      0.97248800      1.90859500
H          -5.03095500      1.97370100      0.49042900
H          -6.60179400      2.06413100      1.30742400
H          -1.68453500     -3.16714900     -0.18783000
H          -0.19500100     -4.13977700      1.58917500
H          -0.94438000     -3.06495600      2.79132600
H          -1.92484100     -4.31605900      2.00160400
H           0.09071700     -1.35736500      1.31603500
H           1.02315400     -2.60422700     -1.86580200
H           1.80283700     -1.52027900     -3.04514000
H           3.40498600     -2.96527600     -1.79759400
H           2.08908300     -1.72052900      0.59815300
H           4.15797100     -1.15522700      1.70582500
H           3.83564300     -3.85259800      0.68626800
H           5.64935600     -2.43643200     -0.31074000
H           4.27981300      2.12511200     -1.81225100
H           2.55974700      3.98934700     -0.88113900
H           1.06338700      0.24687400      3.48960600
H          -0.30254100      4.19720600      2.01762500
H           0.44941100      4.46760100      0.51753400
H          -2.53328000      1.79887900      1.04537900
H           0.33943400      2.22193500     -2.09196500
H          -3.56137200      4.00794000      0.41780400
H          -2.61487200      5.31064400     -1.47751700
H          -0.68337600      4.40987100     -2.75801600
          77
 Energy =    -2320.81352814 a.u.  Frame:     6 Step:     6 Geom:     6
C           0.00259700      2.68117100     -1.14632900
C           1.31698400      3.46819200     -1.17213500
C           2.35287100      3.05429400     -0.11334800
C           3.66010200      3.85713800     -0.26900500
C           4.87730500      3.16669500      0.35405500
C           1.82889400      3.22365500      1.31821400
O           0.90464900      2.17053900      1.68127700
C           1.45775200      0.99899200      2.03021000
O           2.64447400      0.82639300      2.22912700
C           0.39456700     -0.09122400      2.16821100
C          -0.18427800     -0.09464700      3.58479200
N           0.94990700     -1.40895900      1.84581200
P           1.51825100     -1.60259200      0.27768200
O           1.42158500     -0.39513900     -0.57981200
O           0.82242500     -2.91464800     -0.36973900
C          -0.32139100     -2.76394100     -1.22816800
C          -1.61020800     -2.71797800     -0.44312600
C          -2.87425500     -2.69395600     -1.31663500
C          -3.91664300     -2.07911800     -0.35475900
C          -3.02726900     -1.20399200      0.62148200
O          -1.66946300     -1.47112400      0.25684800
C          -3.25349900     -1.65826000      2.01624600
N          -3.42147800     -1.99173000      3.11467100
C          -3.25172900      0.27734800      0.58028200
C          -3.39040200      1.19829400      1.62138700
C          -3.49731600      2.48706100      1.07089300
C          -3.41679600      2.34544900     -0.31384700
N          -3.26661700      0.98487500     -0.58935200
N          -3.15306200      0.45565100     -1.84041100
C          -3.20195500      1.35816000     -2.79014600
N          -3.32501500      2.70280600     -2.68381100
C          -3.42239100      3.19647800     -1.45598700
N          -3.55423200      4.53962000     -1.30832400
O          -4.51946800     -3.18471100      0.29698900
O          -3.24704500     -3.94209400     -1.83908900
O           2.98743900     -2.22076800      0.58184900
C           4.06600000     -1.93382800     -0.26013000
C           4.79313900     -0.76658400     -0.04295000
C           5.90346700     -0.51327600     -0.84816400
C           6.26962800     -1.41237200     -1.85289500
C           5.52213500     -2.57362800     -2.05533000
C           4.40987500     -2.84225800     -1.25548800
H          -0.62123700      2.95587000     -2.00410200
H           0.19495900      1.60466300     -1.18599700
H          -0.56976900      2.87576000     -0.23406800
H           1.78391800      3.34320700     -2.15801900
H           1.11279900      4.54609100     -1.06884300
H           2.57864200      1.99125300     -0.26088000
H           3.85023300      4.01893200     -1.33755200
H           3.52902600      4.85961900      0.16641100
H           2.64344800      3.23069500      2.04475000
H           1.24956600      4.14610300      1.41935300
H           4.71556400      2.91935000      1.40869200
H           5.08504200      2.22759900     -0.16947300
H           5.77107000      3.79740400      0.28773500
H          -0.39690100      0.12298100      1.45200900
H          -0.95271000     -0.86648300      3.67119400
H           0.60127300     -0.29205500      4.32373700
H          -0.62910100      0.87955300      3.81068600
H           1.64729500     -1.70405500      2.52447200
H          -0.21669100     -1.85690500     -1.83108400
H          -0.33239300     -3.64294500     -1.87712500
H          -1.65022000     -3.55605900      0.26722900
H          -2.71929800     -2.00667500     -2.14960200
H          -4.65825400     -1.46050500     -0.86576800
H          -3.74052100     -4.39572100     -1.13290200
H          -5.18109000     -2.87834700      0.93561300
H          -3.41150800      0.93797200      2.66987800
H          -3.62809300      3.41156400      1.61522200
H          -3.11976600      0.96023000     -3.79705100
H          -3.37549100      5.09242900     -2.13603200
H          -3.33238400      4.96243500     -0.41935900
H           4.47708500     -0.08499400      0.73961100
H           3.81140900     -3.73731800     -1.38817600
H           6.48527100      0.38978400     -0.68774500
H           7.13577400     -1.20844500     -2.47564800
H           5.80288000     -3.27471900     -2.83607400
